 Gaussian 16, Revision B.01,
 Gaussian 16:  ES64L-G16RevB.01 20-Dec-2017

 ------------------
 #p scan rhf/sto-3g
 ------------------

 -----
 title
 -----
 Symbolic Z-matrix:
 Charge =  0 Multiplicity = 1

 SCF Done:  E(RHF) =  -1.04299627382     A.U. after    1 cycles

 The electronic state is 1-SGG.
 Alpha  occ. eigenvalues --   -0.69082
 Alpha virt. eigenvalues --    0.98867

 Mulliken charges:
               1
     1  H   -0.000000
     2  H   -0.000000
 Sum of Mulliken charges =  -0.00000

 Dipole moment (field-independent basis, Debye):
    X=             -0.0000    Y=              0.0000    Z=             -0.0000  Tot=              0.0000
 Quadrupole moment (field-independent basis, Debye-Ang):
   XX=             -1.8059   YY=             -1.8059   ZZ=             -1.5894
   XY=              0.0000   XZ=             -0.0000   YZ=              0.0000

 SCF Done:  E(RHF) =  -1.10112824196     A.U. after    1 cycles
 SCF Done:  E(RHF) =  -1.11734903500     A.U. after    1 cycles
 SCF Done:  E(RHF) =  -1.11085039772     A.U. after    1 cycles
 SCF Done:  E(RHF) =  -1.09191404143     A.U. after    1 cycles
 SCF Done:  E(RHF) =  -1.06610864985     A.U. after    1 cycles
 SCF Done:  E(RHF) =  -1.03653887566     A.U. after    1 cycles
 SCF Done:  E(RHF) =  -1.00510670728     A.U. after    1 cycles
 SCF Done:  E(RHF) = -0.973110616550     A.U. after    1 cycles
 SCF Done:  E(RHF) = -0.941480655518     A.U. after    1 cycles
 SCF Done:  E(RHF) = -0.626159759193     A.U. after    1 cycles
 SCF Done:  E(RHF) = -0.622881774838     A.U. after    1 cycles
 SCF Done:  E(RHF) = -0.619936029671     A.U. after    1 cycles
 SCF Done:  E(RHF) = -0.617278314554     A.U. after    1 cycles
 SCF Done:  E(RHF) = -0.614869975345     A.U. after    1 cycles
 SCF Done:  E(RHF) = -0.612677468558     A.U. after    1 cycles
 SCF Done:  E(RHF) = -0.610671869512     A.U. after    1 cycles
 SCF Done:  E(RHF) = -0.608828363420     A.U. after    1 cycles
 SCF Done:  E(RHF) = -0.607125744446     A.U. after    1 cycles

                         Standard orientation:
 ---------------------------------------------------------------------
 Center     Atomic      Atomic             Coordinates (Angstroms)
 Number     Number       Type             X           Y           Z
 ---------------------------------------------------------------------
      1          1           0        0.000000    0.000000    2.250000
      2          1           0        0.000000    0.000000   -2.250000
 ---------------------------------------------------------------------

 SCF Done:  E(RHF) = -0.605545941129     A.U. after    1 cycles
 Normal termination of Gaussian 16 at Mon Jun 14 18:11:27 2021.
